file 10332063 1481289883                                        
version 2
run Exp11-0-20161209-14:23:28-4388
attr configname Exp11
attr datetime 20161209-14:23:28
attr experiment Exp11
attr inifile omnetpp.ini
attr iterationvars ""
attr iterationvars2 $repetition=0
attr measurement ""
attr network DRRNetwork
attr processid 4388
attr repetition 0
attr replication #0
attr resultdir results
attr runnumber 0
attr seedset 0

vector 4  DRRNetwork.R2.ppp[2].queue.af4xQueue  queueingTime:vector  ETV
attr interpolationmode  none
attr title  "queueing time, vector"
vector 1  DRRNetwork.R2.ppp[2].queue.af1xQueue  queueingTime:vector  ETV
attr interpolationmode  none
attr title  "queueing time, vector"
vector 12  DRRNetwork.H8.udpApp[0]  endToEndDelay:vector  ETV
attr interpolationmode  none
attr source  messageAge(rcvdPk)
attr title  "delay, vector"
attr unit  s
vector 6  DRRNetwork.H5.udpApp[0]  endToEndDelay:vector  ETV
attr interpolationmode  none
attr source  messageAge(rcvdPk)
attr title  "delay, vector"
attr unit  s
vector 3  DRRNetwork.R2.ppp[2].queue.af3xQueue  queueingTime:vector  ETV
attr interpolationmode  none
attr title  "queueing time, vector"
vector 10  DRRNetwork.H7.udpApp[0]  endToEndDelay:vector  ETV
attr interpolationmode  none
attr source  messageAge(rcvdPk)
attr title  "delay, vector"
attr unit  s
vector 7  DRRNetwork.H5.udpApp[1]  endToEndDelay:vector  ETV
attr interpolationmode  none
attr source  messageAge(rcvdPk)
attr title  "end-to-end delay, vector"
attr unit  s
vector 2  DRRNetwork.R2.ppp[2].queue.af2xQueue  queueingTime:vector  ETV
attr interpolationmode  none
attr title  "queueing time, vector"
vector 8  DRRNetwork.H6.udpApp[0]  endToEndDelay:vector  ETV
attr interpolationmode  none
attr source  messageAge(rcvdPk)
attr title  "delay, vector"
attr unit  s
vector 9  DRRNetwork.H6.udpApp[1]  endToEndDelay:vector  ETV
attr interpolationmode  none
attr source  messageAge(rcvdPk)
attr title  "end-to-end delay, vector"
attr unit  s
vector 11  DRRNetwork.H7.udpApp[1]  endToEndDelay:vector  ETV
attr interpolationmode  none
attr source  messageAge(rcvdPk)
attr title  "end-to-end delay, vector"
attr unit  s
vector 13  DRRNetwork.H8.udpApp[1]  endToEndDelay:vector  ETV
attr interpolationmode  none
attr source  messageAge(rcvdPk)
attr title  "end-to-end delay, vector"
attr unit  s
1	2333 1295954 164 6781543 1.554155402301 847.351071496847 30597 0 2.98757530582 72922.556358238 175858.39737918
2	1298287 1263635 1561 6781662 1.723277550375 847.359631496846 29784 0 2.953581291844 76249.188892518 197753.66883001
3	2561922 1299639 558 6781740 1.608105270374 847.368191496845 30591 0 2.911019592652 73443.537808248 180089.79844174
4	3861561 1272789 155 6781780 1.550225077379 847.376751496844 29967 0 2.915506127993 75794.060026044 194330.47200975
6	5134350 464048 263 6775891 1.564809302298 846.695659067895 10926 0.015972359998 3.010016943787 26457.166497815 64933.794909669
7	5598398 835934 1082 6781886 1.673804102299 847.380795916843 19671 0.049087485912 3.003102623557 47664.818288347 116679.69952703
8	6434332 407966 1731 6777811 1.733931450372 846.944155067871 9617 0.015972359998 3.021259519754 25157.795728289 66907.562364106
9	6842298 857112 2810 6781935 1.876034584085 847.389355916842 20167 0.031768839995 3.041131712282 53204.333692918 141906.56254485
10	7699410 474861 642 6781581 1.618759170371 847.353747751051 10916 0.015972359998 2.982421959475 26700.880581362 66702.8608309
11	8174271 855089 2939 6782026 1.891218584084 847.397915916841 19674 0.031768839995 2.987512964231 48071.959646596 119888.90026522
12	9029360 430476 222 6777444 1.560878977376 846.899979067875 9912 0.015972359998 2.960494954286 25489.667714629 66642.91154597
13	9459836 872227 3384 6781936 1.973154584083 847.389355916842 20054 0.091022722586 2.977566846818 52024.719702264 136517.52849947
