file 9491167 1481283931                                         
version 2
run Exp21-0-20161209-12:42:40-8764
attr configname Exp21
attr datetime 20161209-12:42:40
attr experiment Exp21
attr iaTime 400ms
attr inifile omnetpp.ini
attr iterationvars $iaTime=400ms
attr iterationvars2 "$iaTime=400ms, $repetition=0"
attr measurement $iaTime=400ms
attr network DRRNetwork
attr processid 8764
attr repetition 0
attr replication #0
attr resultdir results
attr runnumber 0
attr seedset 0

vector 0  DRRNetwork.R2.ppp[2].queue.afQueue  queueLength:vector  ETV
attr interpolationmode  sample-hold
attr title  "queue length, vector"
0	579 9490588 107 8084265 1.547342677379 1200.038970991967 316942 0 38 759149 6078027
